9
 energy: -15.221666214653 gnorm: 0.032770403350 xtb: 6.5.1 (b24c23e)
O            3.38752200000000        2.13066190000000       -1.42073350000000
H            3.78748760000000        1.71245790000000       -0.65826060000000
H            3.41523780000000        3.06682280000000       -1.22308040000000
O            0.81190210000000        2.18277460000000       -0.66301120000000
H            0.55999520000000        3.10022410000000       -0.76818450000000
H            1.73750320000000        2.15870940000000       -0.90573610000000
O           -0.33631160000000        0.77747750000000       -2.62141400000000
H           -0.38105670000000       -0.10267030000000       -2.24782380000000
H            0.07909090000000        1.30644740000000       -1.94033860000000
9
 energy: -15.225495204398 gnorm: 0.021588941022 xtb: 6.5.1 (b24c23e)
O            3.39007096493854        2.17152566047108       -1.38762448911268
H            3.83451412226902        1.70947909231555       -0.66800970884629
H            3.56703661871669        3.11711682319004       -1.23581438424869
O            0.76642907153911        2.20447077866669       -0.59601560001730
H            0.54936135773515        3.12356159950016       -0.78672235734933
H            1.67767723313222        2.07893896443644       -0.93498389279764
O           -0.33577320903056        0.75345690039818       -2.64522710691297
H           -0.40219089268731       -0.12713333911531       -2.27327673140169
H            0.01424523338715        1.30148882013724       -1.92090842931350
9
 energy: -15.226216416450 gnorm: 0.015823036655 xtb: 6.5.1 (b24c23e)
O            3.42184204325770        2.19123309011109       -1.37024489138524
H            3.86640696126525        1.70459201442984       -0.66664892021944
H            3.61181062004003        3.12688596817742       -1.21930302785060
O            0.77317204843756        2.21510684072186       -0.59497987143039
H            0.52984510463586        3.12430169928728       -0.78364314249748
H            1.67667903143902        2.09751700860912       -0.95891205711054
O           -0.35107757555665        0.73601769489136       -2.65461892363224
H           -0.43031019248921       -0.14854015912520       -2.29326520658803
H           -0.03699754102954        1.28579114289727       -1.90696665928614
9
 energy: -15.227012477548 gnorm: 0.012091021942 xtb: 6.5.1 (b24c23e)
O            3.47288445370070        2.23438509812724       -1.32362902794983
H            3.93191846477593        1.69693944432368       -0.66403875760605
H            3.73685657275972        3.15248664366795       -1.19222638541845
O            0.77807472344891        2.23267918024067       -0.60221221038120
H            0.47431056145536        3.12070173860509       -0.79187466908498
H            1.67104774675469        2.14569013838924       -0.98021734810496
O           -0.46611293023799        0.72504709084461       -2.63446824195181
H           -0.47840828927215       -0.19616454723172       -2.35282630810526
H           -0.05920080338502        1.22114051303316       -1.90708975139752
9
 energy: -15.227275579676 gnorm: 0.010588701262 xtb: 6.5.1 (b24c23e)
O            3.49465639158344        2.25210557653441       -1.30358006030057
H            3.96035716686485        1.70765400692624       -0.66133447660549
H            3.79585807611860        3.16304026528449       -1.18842224409397
O            0.78334785086163        2.22451139007391       -0.61076881251061
H            0.44822409469401        3.10409740970492       -0.79910591817838
H            1.67635394322238        2.16629939676890       -0.97768517988960
O           -0.47980190234901        0.71444101907103       -2.64293035911755
H           -0.51988002164757       -0.20312396799458       -2.36760173608305
H           -0.09774509934816        1.20388020363056       -1.89715391322087
9
 energy: -15.227372234543 gnorm: 0.011313579560 xtb: 6.5.1 (b24c23e)
O            3.52681891030947        2.28054523935342       -1.28484643654459
H            3.99371180326842        1.71871716503516       -0.66345064270985
H            3.83171733454607        3.17449110193803       -1.15852361490393
O            0.78925311861593        2.21601159058682       -0.62252916765121
H            0.43695940363046        3.08784221605076       -0.82656830942176
H            1.68445749077871        2.17191853010869       -0.98664947946668
O           -0.51066856674126        0.71009941795775       -2.64045340747043
H           -0.56381055427386       -0.20939881245518       -2.38127489737151
H           -0.12706844013371        1.18267885142441       -1.88428674446017
9
 energy: -15.227557134552 gnorm: 0.008890512482 xtb: 6.5.1 (b24c23e)
O            3.53961107102021        2.31740284339328       -1.26031683368647
H            4.02199719872066        1.72018600500007       -0.67640027419911
H            3.91371067997061        3.19577281689261       -1.13114293832467
O            0.78157055153357        2.20823401989200       -0.63416916137713
H            0.42097809746016        3.07191861524365       -0.85386607721713
H            1.68183315812098        2.17601155637790       -0.99009703744071
O           -0.53989944795088        0.70363526692572       -2.63737865202800
H           -0.60287666323020       -0.21969773216757       -2.39552112315629
H           -0.15555414564483        1.15944190844213       -1.86969060257064
9
 energy: -15.227646697076 gnorm: 0.008013137712 xtb: 6.5.1 (b24c23e)
O            3.54522480696118        2.32835886141459       -1.25411417023456
H            4.01451493200937        1.73152023505664       -0.67028221665611
H            3.93147696995814        3.20349223689484       -1.13193903189094
O            0.77979813878702        2.19606435356662       -0.64588737719224
H            0.42782561674677        3.05946529646471       -0.86036864102908
H            1.68714537356688        2.16918691280283       -0.98638019115589
O           -0.55724732107213        0.70776100861997       -2.63238394077011
H           -0.61566801554852       -0.21802257625731       -2.39583754572775
H           -0.15170000140840        1.15507897143688       -1.87138958534349
9
 energy: -15.227766714211 gnorm: 0.004424234206 xtb: 6.5.1 (b24c23e)
O            3.55473623745628        2.35785664652346       -1.24391120378772
H            4.01738895836917        1.73047956389569       -0.68157077931591
H            3.95798358852473        3.21862042082899       -1.10192470644674
O            0.78182004825173        2.17927487827421       -0.66508053120378
H            0.42590144696253        3.03815112909699       -0.89160592304639
H            1.70073341695972        2.17086139968553       -0.97714222136417
O           -0.58719004553561        0.70981031319110       -2.62242432585702
H           -0.64532351492255       -0.21720023855952       -2.39021928301243
H           -0.14467963606566        1.14505118706327       -1.87470372596600
9
 energy: -15.227817523209 gnorm: 0.005897595699 xtb: 6.5.1 (b24c23e)
O            3.56714832344123        2.38869094954252       -1.22514279376089
H            4.02684079896584        1.73675697277314       -0.68776867950528
H            3.99939402369375        3.23462113597402       -1.07791776706584
O            0.79018133129443        2.15722612038381       -0.68207113386623
H            0.41273658141034        3.00728235266787       -0.92595478199417
H            1.71991999699689        2.18048453911149       -0.96832260123498
O           -0.62403020206674        0.71170496173475       -2.61405967927782
H           -0.68546027992932       -0.21770488131421       -2.38895494862210
H           -0.14536007380603        1.13384314912628       -1.87839031467289
9
 energy: -15.227855663061 gnorm: 0.004520743713 xtb: 6.5.1 (b24c23e)
O            3.56518606227438        2.39552747227807       -1.21911464538865
H            4.02869778097471        1.73988110226932       -0.68970219684442
H            3.99825791390398        3.23804107228541       -1.07096990008407
O            0.79532442055765        2.14915287594046       -0.69218092058734
H            0.41810000212732        2.99957797351954       -0.92734778596964
H            1.72771536647197        2.17914665639204       -0.96594498838843
O           -0.62781358851872        0.70771114990868       -2.61627831502731
H           -0.69582269606034       -0.21570375403741       -2.37698455739010
H           -0.14827476173055        1.13957075144354       -1.89005939032024
9
 energy: -15.227892347072 gnorm: 0.003489186335 xtb: 6.5.1 (b24c23e)
O            3.56793691075309        2.41014215186884       -1.20522181290888
H            4.03453726612400        1.74551827409097       -0.69018203349031
H            4.01610171606356        3.24665244495685       -1.06213572251541
O            0.80340950702706        2.14162243474531       -0.70270060042962
H            0.42065799827382        2.99044733130457       -0.92893917713716
H            1.73596800136843        2.18112488543692       -0.96751278858584
O           -0.64357214479026        0.70150829427701       -2.61860855741288
H           -0.71915597165792       -0.22013448270897       -2.37249916769663
H           -0.15451278316135        1.13602396602812       -1.90078283982348
9
 energy: -15.227918497178 gnorm: 0.001896418858 xtb: 6.5.1 (b24c23e)
O            3.57329845199597        2.42923640694285       -1.18643386948486
H            4.04048763736158        1.75422522675217       -0.68941803315449
H            4.03725013771799        3.25808012182084       -1.05181958594858
O            0.81587885596424        2.12865407373938       -0.71517127772727
H            0.42107735107779        2.97549672297902       -0.93030393238782
H            1.74873405144139        2.18544010818180       -0.97121077258263
O           -0.66457123978356        0.69418666158558       -2.62263684090459
H           -0.75521922774485       -0.22330504983728       -2.36260598166861
H           -0.15556551803009        1.13089102783524       -1.91898240614141
9
 energy: -15.227901434333 gnorm: 0.008935377676 xtb: 6.5.1 (b24c23e)
O            3.58757162199203        2.47118698035369       -1.15479804022246
H            4.05713851262623        1.76203476937464       -0.69896402892324
H            4.09282140354400        3.28154236424306       -1.02056793728498
O            0.82540674551504        2.10753723709127       -0.74176906328733
H            0.41749939962453        2.95234541653020       -0.93625802436451
H            1.76246091934068        2.19145496237782       -0.97921565486292
O           -0.69586218550462        0.67823296692081       -2.63021261360636
H           -0.82029601072860       -0.22811879290545       -2.34322325870039
H           -0.16536990640875        1.11668939601349       -1.94357407874811
9
 energy: -15.227952172870 gnorm: 0.004407100262 xtb: 6.5.1 (b24c23e)
O            3.58395542337108        2.45929055770379       -1.16159580410155
H            4.05417828621682        1.76109147577223       -0.69679106515333
H            4.07588128391597        3.27515882541441       -1.03045922239015
O            0.82147362780632        2.11319410519393       -0.73502186388694
H            0.42032229603236        2.96236343664391       -0.92439941304081
H            1.75527758611842        2.18759763830931       -0.98216805286059
O           -0.68051731887297        0.67909182865889       -2.63413133129613
H           -0.80842408312298       -0.22505299468594       -2.34100361483477
H           -0.16077660146451        1.12017042698902       -1.94301233243602
9
 energy: -15.227980163713 gnorm: 0.002175369432 xtb: 6.5.1 (b24c23e)
O            3.58342335784292        2.45853503312896       -1.16039431945771
H            4.05686039863683        1.76260069858701       -0.69974844172636
H            4.07027664924225        3.27410658902836       -1.03031629469398
O            0.81787729053699        2.11094248199500       -0.73832700914803
H            0.42117232242957        2.96522831137388       -0.91512084875158
H            1.75275777214123        2.18607430884853       -0.98278736801326
O           -0.67471256722451        0.67634852959286       -2.63973302747694
H           -0.81678108586674       -0.22024479039718       -2.32954949900414
H           -0.14950363773804        1.11931413784211       -1.95260589172829
9
 energy: -15.227999458474 gnorm: 0.004271351640 xtb: 6.5.1 (b24c23e)
O            3.58357537070349        2.46140391013151       -1.15650515318756
H            4.06113346794523        1.76275667222517       -0.70619710982033
H            4.07368019661678        3.27495524605033       -1.02823939411210
O            0.81245745902592        2.10870152206823       -0.74227435380080
H            0.42083309074831        2.97004690519227       -0.90069962244237
H            1.74663428021960        2.18328657150665       -0.98649902357958
O           -0.66312073488583        0.66872641361507       -2.65008801107604
H           -0.83005097960762       -0.21529575947782       -2.31315872179933
H           -0.14377165076539        1.11832381868813       -1.96492131018218
9
 energy: -15.228018489022 gnorm: 0.002464057799 xtb: 6.5.1 (b24c23e)
O            3.58352434248008        2.46482840226352       -1.15359041114595
H            4.06539759496659        1.76031162922051       -0.71544186892468
H            4.07904489596606        3.27530230768875       -1.02355591217046
O            0.80404072784823        2.10777251564184       -0.74749492893435
H            0.42023171165490        2.97594692507013       -0.89037968709818
H            1.73986505395554        2.18045912330391       -0.98620836581099
O           -0.65797662656050        0.66141429061944       -2.65647000062660
H           -0.83547113999128       -0.21073342861878       -2.29954788308486
H           -0.13728606031914        1.11760353481020       -1.97589364220423
9
 energy: -15.228016473165 gnorm: 0.007868980932 xtb: 6.5.1 (b24c23e)
O            3.58503795680176        2.48245653010584       -1.13924043086749
H            4.07310069434807        1.76169827118175       -0.72962985453641
H            4.09705190592565        3.28363818966515       -1.00946437685065
O            0.80078190166220        2.09820645178533       -0.76236859020463
H            0.42128385841912        2.97350131425063       -0.87900284459901
H            1.74030725527794        2.17910293855604       -0.98540521007571
O           -0.65656913763198        0.64607972659927       -2.66876617238293
H           -0.87122981971902       -0.20620915744924       -2.27403193633217
H           -0.12839411508324        1.11443103530473       -2.00067328415132
9
 energy: -15.228040694099 gnorm: 0.002828796012 xtb: 6.5.1 (b24c23e)
O            3.58447233114234        2.47806372678288       -1.14322271382477
H            4.06896046054567        1.76001646687233       -0.72616030713690
H            4.09498768876270        3.28123425068414       -1.01345852484805
O            0.80245203385180        2.10223837928819       -0.75751888404085
H            0.42076025686465        2.97325641225288       -0.88683373679035
H            1.74205938583727        2.18070688897800       -0.98257072862318
O           -0.66030749396099        0.65034500521968       -2.66206600896377
H           -0.85581955574642       -0.20960843521485       -2.28704003902061
H           -0.13619460729652        1.11665260513627       -1.98971175675182
9
 energy: -15.228050891811 gnorm: 0.002016189579 xtb: 6.5.1 (b24c23e)
O            3.58272223944705        2.47711672027693       -1.14300594615604
H            4.06830294672058        1.75867181374318       -0.72940816122440
H            4.09325954064866        3.28009383703010       -1.01454109996409
O            0.80097738841510        2.10410814168041       -0.75650422896702
H            0.42120199100951        2.97654475283595       -0.88202733648539
H            1.74026519421148        2.18046712007901       -0.98187926163021
O           -0.65309433000871        0.64698582748917       -2.66524773950165
H           -0.85730569710520       -0.20846282051329       -2.28431413982527
H           -0.13495877333797        1.11737990737805       -1.99165478624625
9
 energy: -15.228076213841 gnorm: 0.001320141472 xtb: 6.5.1 (b24c23e)
O            3.57726225435166        2.47995752067019       -1.13285997887094
H            4.07106697444002        1.75445980751542       -0.74299061783819
H            4.09673264975758        3.27809873281362       -1.01405813282165
O            0.79933854675500        2.10709531307737       -0.75459120498155
H            0.41862279120927        2.97803700076543       -0.88446314544278
H            1.73852056482043        2.18327782792099       -0.97976079927852
O           -0.64010444731796        0.64173334107849       -2.66924831141829
H           -0.86293096930076       -0.20694200056676       -2.28340779365763
H           -0.13713786471477        1.11718775672477       -1.98720271569073
9
 energy: -15.228114367326 gnorm: 0.006707386231 xtb: 6.5.1 (b24c23e)
O            3.55950734988795        2.49071681845849       -1.10123490359740
H            4.07948313523536        1.73923963723507       -0.79331104250917
H            4.10953630890689        3.27208396730050       -1.01108104436132
O            0.78536271558469        2.11737933659489       -0.74961007530818
H            0.41031156613795        2.98742756068303       -0.89503950646612
H            1.72895894868523        2.18755223347480       -0.95702841053588
O           -0.61241949763304        0.62880704463932       -2.67660090241053
H           -0.87789524240166       -0.20168380965884       -2.27481072789893
H           -0.12147478440290        1.11138251127221       -1.98986608691272
9
 energy: -15.228150199197 gnorm: 0.004465339125 xtb: 6.5.1 (b24c23e)
O            3.55933302738597        2.49115666661959       -1.10258637823964
H            4.07584819881989        1.73624648696576       -0.80420576144585
H            4.11214571601464        3.26944656213805       -1.00999018033653
O            0.77991774630082        2.11994068219916       -0.74810665654832
H            0.40657398348655        2.99037199805603       -0.89553383740050
H            1.72589694697535        2.19053308435414       -0.94468868167138
O           -0.60185814530503        0.62461402478937       -2.67950203341287
H           -0.88170030101804       -0.19874299848738       -2.27242775244122
H           -0.11478667265970        1.10933879336477       -1.99154141850391
9
 energy: -15.228219281033 gnorm: 0.004709475280 xtb: 6.5.1 (b24c23e)
O            3.55100534779990        2.49500257952170       -1.09203200016662
H            4.06759004409228        1.71784382957663       -0.85800833865784
H            4.12707952052562        3.25729175936060       -1.00614416876854
O            0.75798038383325        2.13284946139628       -0.73838484134474
H            0.38764243360018        3.00237395110754       -0.90186771465662
H            1.71019195390219        2.20553720255898       -0.90306172112079
O           -0.56417171536853        0.60877592449022       -2.68775590874961
H           -0.88861141841173       -0.18894468411378       -2.26205968881526
H           -0.08733604997276        1.10217527610127       -1.99926831772014
9
 energy: -15.228276722580 gnorm: 0.003027628899 xtb: 6.5.1 (b24c23e)
O            3.54317845386963        2.49348837180632       -1.08729307693324
H            4.04983828346195        1.69637987329520       -0.90879405133026
H            4.14068938295787        3.24023524849937       -1.00297611511917
O            0.73804576493087        2.14872613522372       -0.72279397863761
H            0.36453696727871        3.01417209698059       -0.90583779079332
H            1.69132437081553        2.22730871845514       -0.87042039407885
O           -0.52825499478521        0.59589023529944       -2.69107284244531
H           -0.87894846162148       -0.18071965882877       -2.25521422165450
H           -0.05903926690752        1.09742427926842       -2.00418022900785
9
 energy: -15.227877900405 gnorm: 0.028906096359 xtb: 6.5.1 (b24c23e)
O            3.52139431709502        2.49386724007176       -1.07224435684921
H            4.01505249152937        1.65292396970053       -1.02213322379477
H            4.16570180682071        3.20647983466308       -0.99565889287210
O            0.69769828344472        2.18078039136302       -0.69201934171418
H            0.32031662078416        3.03866417284496       -0.90903270225177
H            1.65371666377419        2.26934588470586       -0.80515957377144
O           -0.42172775982103        0.55821157981907       -2.71134585727698
H           -0.88580684278212       -0.15461531648880       -2.23447235211640
H           -0.00497508084476        1.08724754331991       -2.00651639935309
9
 energy: -15.228297673677 gnorm: 0.008296911879 xtb: 6.5.1 (b24c23e)
O            3.53271466720506        2.48370540228969       -1.09425433139416
H            4.01952450406745        1.67564925645439       -0.95235613004084
H            4.14331061211539        3.21782852670013       -1.00421588061798
O            0.72153999438803        2.16671671767959       -0.70381844265900
H            0.34195292811399        3.02644391453851       -0.89866159499749
H            1.67239860667459        2.25325670819206       -0.84856165789381
O           -0.46982128615128        0.58109376670571       -2.69789322495601
H           -0.86849484018095       -0.16759443422421       -2.25021617513405
H           -0.03175468623198        1.09580544166355       -1.99860526230666
9
 energy: -15.228169805897 gnorm: 0.017296800541 xtb: 6.5.1 (b24c23e)
O            3.52292110195895        2.49364001786947       -1.07088819167375
H            4.02835421508000        1.67312603807540       -0.96307015793524
H            4.15028734895526        3.21854916515583       -0.99913579019648
O            0.72072733728740        2.16791852173561       -0.71860556906289
H            0.35160995734618        3.03191105593515       -0.90938141451533
H            1.67821741289770        2.24462794428943       -0.84929875147984
O           -0.49895941875465        0.58898402231624       -2.68434540939670
H           -0.85270153110164       -0.18180934674959       -2.25732315930490
H           -0.03908592366888        1.09595788137187       -1.99653425643492
9
 energy: -15.228359123300 gnorm: 0.001723297359 xtb: 6.5.1 (b24c23e)
O            3.52497006517737        2.48800523845191       -1.08463928091234
H            4.01724394900806        1.67329779083450       -0.96073035758383
H            4.14410007981175        3.21635342736270       -1.00121505557303
O            0.72195067319922        2.16839853198565       -0.70812844513571
H            0.34687764465621        3.02981930137677       -0.90204092072121
H            1.67476363321782        2.24888551546648       -0.85225838064456
O           -0.47150716915202        0.58289708115387       -2.69305594041951
H           -0.86413928478595       -0.17122604492197       -2.25251196212598
H           -0.03288909113218        1.09647445828949       -1.99400235688385
9
 energy: -15.228397498797 gnorm: 0.003524230030 xtb: 6.5.1 (b24c23e)
O            3.51451817563871        2.48412854544973       -1.08481441771569
H            3.99643788558776        1.66053558513421       -0.99073850655019
H            4.14538239993432        3.20255288354382       -1.00172557850458
O            0.71190964520586        2.17949509591351       -0.69751180870716
H            0.33657627182995        3.03913843058867       -0.89934488263712
H            1.66468241115447        2.26008042520607       -0.83977956669546
O           -0.43479097219738        0.57426794047747       -2.69549254188092
H           -0.85733447328829       -0.16364362230033       -2.25005819232518
H           -0.01601084386513        1.09635001598625       -1.98911720498366
9
 energy: -15.228412456498 gnorm: 0.014219310156 xtb: 6.5.1 (b24c23e)
O            3.47975736205371        2.47441773067203       -1.08012416718387
H            3.93271961554458        1.62025040240418       -1.08637072468417
H            4.14954705121952        3.15949351590836       -0.99939104063854
O            0.68135410395570        2.21429628704878       -0.66939007642403
H            0.30775485212458        3.06933593714611       -0.89523133903977
H            1.63570944372669        2.29248890624202       -0.80240635157096
O           -0.33549376413024        0.55251637660349       -2.69526974816913
H           -0.82816428525232       -0.14571097543529       -2.24427771520877
H            0.03818612075793        1.09581711940968       -1.97612153708060
9
 energy: -15.228486438092 gnorm: 0.003280206973 xtb: 6.5.1 (b24c23e)
O            3.48854679926346        2.47531313472339       -1.08204329939409
H            3.95210631804439        1.63535160893023       -1.04984492245064
H            4.14377885327597        3.17246646228667       -1.00352092810124
O            0.69283420010633        2.20230247489886       -0.68000315069782
H            0.31996221819738        3.05965820128622       -0.89532750989495
H            1.64728744769217        2.27934543234997       -0.81782268057117
O           -0.37177839959056        0.56328516061214       -2.69202324090567
H           -0.83180119275657       -0.15306128821114       -2.24824090584330
H            0.02043425576762        1.09824411312304       -1.97975606214101
9
 energy: -15.228536143950 gnorm: 0.002678611461 xtb: 6.5.1 (b24c23e)
O            3.47367681099737        2.46939261168469       -1.08173015849374
H            3.92592204092556        1.62167518024060       -1.08163615697300
H            4.14113571043136        3.15494797735582       -1.00463181540277
O            0.68242703568655        2.21520724339501       -0.67130149458279
H            0.31225739804613        3.07196323008252       -0.89304055042089
H            1.63821145410827        2.28903805885571       -0.80591875025770
O           -0.33787969096733        0.55835480783299       -2.68835092265019
H           -0.81349716898991       -0.14853797878248       -2.24867207788874
H            0.03911690976213        1.10086416933450       -1.97330077333001
9
 energy: -15.228455465718 gnorm: 0.022286973587 xtb: 6.5.1 (b24c23e)
O            3.40591603838707        2.44280672842701       -1.08141438420505
H            3.80416917317661        1.56217187692188       -1.22599591194014
H            4.12946568470491        3.07490421730805       -1.01279437705790
O            0.63424866214971        2.27305158805667       -0.62932037596321
H            0.27638471554659        3.12679444439988       -0.88186465752615
H            1.59514068786979        2.33229633575157       -0.74955450829266
O           -0.17620569353770        0.53565222732935       -2.67177771663681
H           -0.74045325550444       -0.12293040614759       -2.25120690332720
H            0.13270448720742        1.10815828795248       -1.94465386505050
9
 energy: -15.228655965735 gnorm: 0.002521462261 xtb: 6.5.1 (b24c23e)
O            3.43177580517351        2.44851203750783       -1.08797917585151
H            3.85197541989226        1.58838265047663       -1.15994686407053
H            4.12442922186771        3.10615162279221       -1.01270277015193
O            0.65482739416334        2.24958268346713       -0.64641270980535
H            0.29499288587771        3.10607893663309       -0.88471886136553
H            1.61389094057174        2.31062236965355       -0.77474897711315
O           -0.24022679628604        0.54821489009621       -2.67557681639353
H           -0.76358953960847       -0.13357569942988       -2.25331288864147
H            0.09329516834828        1.10893580880255       -1.95318363660672
9
 energy: -15.228702544844 gnorm: 0.003769677823 xtb: 6.5.1 (b24c23e)
O            3.41790931731468        2.44308527516858       -1.08979331706101
H            3.82247776885320        1.57734886269029       -1.18563577125247
H            4.12612135583296        3.08801132262069       -1.01948455521466
O            0.64449913670272        2.26113239432990       -0.63653059817459
H            0.28741808465619        3.11716773788213       -0.88024611406208
H            1.60371440287607        2.31935383750153       -0.76315706355170
O           -0.20392839452557        0.54374366886169       -2.67199909752814
H           -0.74509649606852       -0.12913071832983       -2.25764295827248
H            0.10825532435827        1.11219291927435       -1.94409322488253
9
 energy: -15.228460340004 gnorm: 0.028222193961 xtb: 6.5.1 (b24c23e)
O            3.34952171246771        2.41233974538345       -1.10322854065196
H            3.67598045757924        1.51843585523532       -1.32894237633174
H            4.11864757346500        2.99637946803528       -1.03619807583835
O            0.59287644123971        2.32283210608917       -0.58646984798836
H            0.24888759576732        3.17487063411917       -0.86572850827677
H            1.55284364891837        2.36583141668974       -0.70437016336484
O           -0.01845391619994        0.52239712476667       -2.64742514477761
H           -0.65938131987038       -0.10237012607541       -2.27477902895058
H            0.20044830663276        1.12218907575589       -1.90144101381923
9
 energy: -15.228816754927 gnorm: 0.005005657611 xtb: 6.5.1 (b24c23e)
O            3.37999096709531        2.42174927357632       -1.09900396892509
H            3.74767497310990        1.54756046918375       -1.25441739243801
H            4.11643224057433        3.03786049208809       -1.03517430011642
O            0.61691487404799        2.29326430253761       -0.60920681840840
H            0.26663204142108        3.14726668481961       -0.87005336592872
H            1.57626151211044        2.34390616053372       -0.73108505374285
O           -0.11005500667380        0.53660522349322       -2.65741311768008