9
 energy: -15.235010180079 gnorm: 0.000724483831 xtb: 6.5.1 (b24c23e)
O            3.00489004360840        1.92579720899144       -1.08357598433733
H            2.47108155997876        1.38231805228400       -1.69298145051299
H            3.71525925645775        2.29807072221509       -1.60764440199043
O            0.35565985765943        2.62152875755696       -0.50431725589707
H            0.21132742842885        3.56688022569885       -0.56272583115429
H            1.31278836950280        2.49465666485360       -0.39623729526992
O            0.92383402896367        0.75886174624571       -2.47618839582202
H            0.62076528760796       -0.11038875481518       -2.20971803754088
H            0.44576466778881        1.39518067696891       -1.91519404747419
